              13
Energy (kJ/mol): -1.3048560954E+01                
 10      2.8253844959      0.9285624679      0.5055201493
 10      2.0233421727     -2.1361262686      0.6660712876
 10      2.0337618117     -0.6439894138     -2.1330003492
 10      0.9797772051      2.3120025628     -1.6719093076
 10      0.9629142799     -0.1023265866      2.8570833601
 10      0.3179576196      2.6467689684      1.4121320537
 10     -2.8253883429     -0.9285637559     -0.5055204714
 10     -0.3179559449     -2.6467698407     -1.4121318253
 10     -0.9797761742     -2.3120037518      1.6719091386
 10     -0.9629160729      0.1023263923     -2.8570832725
 10     -2.0233405414      2.1361285588     -0.6660710893
 10     -2.0337628340      0.6439899051      2.1329999114
 10      0.0000023253      0.0000007621      0.0000004149
X00     -0.0000019235      0.0893073276      0.0000000438
X01      5.3199980765      0.0893073276      0.0000000438
X02     -5.3200019235      0.0893073276      0.0000000438
X03     -0.0000019235      0.0893073276     -5.3199999562
X04     -0.0000019235      0.0893073276      5.3200000438
X05      3.7618060880      0.0893073276      3.7618080553
X06     -3.7618099350      0.0893073276     -3.7618079678
X07      3.7618060880      0.0893073276     -3.7618079678
X08     -3.7618099350      0.0893073276      3.7618080553
X09     -0.0000019235      5.4093073276      0.0000000438
X10     -0.0000019235     -5.2306926724      0.0000000438
X11      3.7618060880      3.8511153391      0.0000000438
X12     -3.7618099350     -3.6725006839      0.0000000438
X13     -3.7618099350      3.8511153391      0.0000000438
X14      3.7618060880     -3.6725006839      0.0000000438
X15     -0.0000019235      3.8511153391      3.7618080553
X16     -0.0000019235     -3.6725006839     -3.7618079678
X17     -0.0000019235      3.8511153391     -3.7618079678
X18     -0.0000019235     -3.6725006839      3.7618080553
