              13
Energy (kJ/mol): -1.4309038102E+01 at 2.0 K       
 10     -4.1836869308      0.6895976986     -1.9940178559
 10     -4.2680585442     -1.1992164658      0.4936069138
 10     -3.8972507951      1.7017826552      1.0269103845
 10     -2.1760997422      2.7806237927     -1.3937874444
 10     -2.8255799996     -1.9173067965     -2.1669805848
 10     -1.5056014049      0.4967096583     -3.3332769949
 10      0.3294598876     -0.3140355711      1.3895279536
 10     -2.3052117605     -0.2575082293      2.6257694443
 10     -1.6262626859     -2.4664402204      0.6988181685
 10     -1.0602132069      2.2250980460      1.5487981408
 10      0.4177055714      1.4467798638     -1.2112000062
 10      0.0825057385     -1.4357567225     -1.6998166970
 10     -1.9161201029      0.1440997442     -0.3197864135
X00     -0.0000019235      0.0893073276      0.0000000438
X01      5.3199980765      0.0893073276      0.0000000438
X02     -5.3200019235      0.0893073276      0.0000000438
X03     -0.0000019235      0.0893073276     -5.3199999562
X04     -0.0000019235      0.0893073276      5.3200000438
X05      3.7618060880      0.0893073276      3.7618080553
X06     -3.7618099350      0.0893073276     -3.7618079678
X07      3.7618060880      0.0893073276     -3.7618079678
X08     -3.7618099350      0.0893073276      3.7618080553
X09     -0.0000019235      5.4093073276      0.0000000438
X10     -0.0000019235     -5.2306926724      0.0000000438
X11      3.7618060880      3.8511153391      0.0000000438
X12     -3.7618099350     -3.6725006839      0.0000000438
X13     -3.7618099350      3.8511153391      0.0000000438
X14      3.7618060880     -3.6725006839      0.0000000438
X15     -0.0000019235      3.8511153391      3.7618080553
X16     -0.0000019235     -3.6725006839     -3.7618079678
X17     -0.0000019235      3.8511153391     -3.7618079678
X18     -0.0000019235     -3.6725006839      3.7618080553
