             147
Energy (kJ/mol): -2.8411797390E+02                
 10      0.0000000000      0.0000000000      0.0000000000
 10     -0.0000060861      0.0000085213      2.8874476290
 10      0.7980681959     -2.4562058419      1.2913147668
 10     -2.0893794412     -1.5180172603      1.2913059120
 10     -2.0893794673      1.5180248460      1.2912969521
 10      0.7980681536      2.4562134774      1.2913002694
 10      2.5826089501      0.0000038331      1.2913112795
 10     -0.7980681536     -2.4562134774     -1.2913002694
 10     -2.5826089501     -0.0000038331     -1.2913112795
 10     -0.7980681959      2.4562058419     -1.2913147668
 10      2.0893794412      1.5180172603     -1.2913059120
 10      2.0893794673     -1.5180248460     -1.2912969521
 10      0.0000060861     -0.0000085213     -2.8874476290
 10     -0.0000123248      0.0000172563      5.8472736473
 10      0.8166489384     -2.5134020395      4.2760855735
 10     -2.1380472170     -1.5533630904      4.2760765124
 10     -2.1380472438      1.5533882924      4.2760673439
 10      0.8166488951      2.5134272924      4.2760707385
 10      2.6427515621      0.0000126422      4.2760820050
 10      3.4594129562     -2.5134068369      2.6427752843
 10      1.6161412188     -4.9739803236      2.6149983573
 10     -1.3213858229     -4.0667825695      2.6427697917
 10     -4.2311324449     -3.0740859967      2.6149804256
 10     -4.2760820050      0.0000077624      2.6427515621
 10     -4.2311324978      3.0741013583      2.6149622812
 10     -1.3213858929      4.0667981452      2.6427457881
 10      1.6161411332      4.9739957859      2.6149689991
 10      3.4594129129      2.5134224950      2.6427604493
 10      5.2299550316      0.0000077623      2.6149912953
 10      2.9546961821     -4.0667903319      0.0000182296
 10      0.0000000433     -5.0268293319      0.0000148350
 10     -2.9546961121     -4.0667903828      0.0000057739
 10     -4.7807987791     -1.5533757326     -0.0000054926
 10     -4.7807988058      1.5533756502     -0.0000146612
 10     -2.9546961821      4.0667903319     -0.0000182296
 10     -0.0000000433      5.0268293319     -0.0000148350
 10      2.9546961121      4.0667903828     -0.0000057739
 10      4.7807987791      1.5533757326      0.0000054926
 10      4.7807988058     -1.5533756502      0.0000146612
 10      1.3213858929     -4.0667981452     -2.6427457881
 10     -1.6161411332     -4.9739957859     -2.6149689991
 10     -3.4594129129     -2.5134224950     -2.6427604493
 10     -5.2299550316     -0.0000077623     -2.6149912953
 10     -3.4594129562      2.5134068369     -2.6427752843
 10     -1.6161412188      4.9739803236     -2.6149983573
 10      1.3213858229      4.0667825695     -2.6427697917
 10      4.2311324449      3.0740859967     -2.6149804256
 10      4.2760820050     -0.0000077624     -2.6427515621
 10      4.2311324978     -3.0741013583     -2.6149622812
 10     -0.8166488951     -2.5134272924     -4.2760707385
 10     -2.6427515621     -0.0000126422     -4.2760820050
 10     -0.8166489384      2.5134020395     -4.2760855735
 10      2.1380472170      1.5533630904     -4.2760765124
 10      2.1380472438     -1.5533882924     -4.2760673439
 10      0.0000123248     -0.0000172563     -5.8472736473
 10     -0.0000187724      0.0000262838      8.9062303798
 10      0.8281110793     -2.5486896076      7.3097552604
 10     -2.1680786253     -1.5751685875      7.3097460720
 10     -2.1680786525      1.5752116947      7.3097367747
 10      0.8281110354      2.5487327665      7.3097402170
 10      2.6798581264      0.0000215954      7.3097516418
 10      3.5271337544     -2.5626045254      5.7070567226
 10      1.6500027900     -5.0782063086      5.6659880093
 10     -1.3472617911     -4.1463916918      5.7070511224
 10     -4.3198064531     -3.1384977597      5.6659697019
 10     -4.3598039570      0.0000168049      5.7070325359
 10     -4.3198065071      3.1385311277      5.6659511773
 10     -1.3472618625      4.1464253534      5.7070266489
 10      1.6500027025      5.0782397796      5.6659580360
 10      3.5271337103      2.5626382711      5.7070415971
 10      5.3395477545      0.0000167673      5.6659807994
 10      6.1676777322     -2.5486993006      4.0097371372
 10      4.3298798147     -5.0782111734      4.0097407286
 10      2.4616132046     -7.5760802963      3.9830148574
 10     -0.5180569370     -6.6534013563      4.0097351588
 10     -3.4916764754     -5.6872138275      4.0097260397
 10     -6.4446172001     -4.6822707034      3.9829875449
 10     -6.4878662072     -1.5633125252      4.0097075541
 10     -6.4878662341      1.5633360800      4.0096983268
 10     -6.4446172807      4.6822941013      3.9829599084
 10     -3.4916765734      5.6872374340      4.0096924718
 10     -0.5180570516      6.6534250141      4.0096958881
 10      2.4616130741      7.5761038476      3.9829701407
 10      4.3298797273      5.0782349148      4.0097107552
 10      6.1676776883      2.5487230736      4.0097220939
 10      7.9659662257      0.0000118231      3.9830041010
 10      5.7070389214     -4.1464044975      1.3472740636
 10      3.8180751747     -6.6534092277      1.3298707647
 10      0.8218854869     -7.6269302995      1.3298673224
 10     -2.1798987458     -6.7090259636      1.3472650024
 10     -5.1479237562     -5.6872217506      1.3298490150
 10     -6.9996708472     -3.1385105794      1.3298375902
 10     -7.0542943628      0.0000039152      1.3472349287
 10     -6.9996709012      3.1385183080      1.3298190657
 10     -5.1479238542      5.6872295110      1.3298154471
 10     -2.1798988614      6.7090338780      1.3472254034
 10      0.8218853555      7.6269381629      1.3298223057
 10      3.8180750601      6.6534171427      1.3298314940
 10      5.7070388500      4.1464125478      1.3472495901
 10      7.5076201121      1.5751941304      1.3298542575
 10      7.5076201392     -1.5751861518      1.3298635548
 10      5.1479238542     -5.6872295110     -1.3298154471
 10      2.1798988614     -6.7090338780     -1.3472254034
 10     -0.8218853555     -7.6269381629     -1.3298223057
 10     -3.8180750601     -6.6534171427     -1.3298314940
 10     -5.7070388500     -4.1464125478     -1.3472495901
 10     -7.5076201121     -1.5751941304     -1.3298542575
 10     -7.5076201392      1.5751861518     -1.3298635548
 10     -5.7070389214      4.1464044975     -1.3472740636
 10     -3.8180751747      6.6534092277     -1.3298707647
 10     -0.8218854869      7.6269302995     -1.3298673224
 10      2.1798987458      6.7090259636     -1.3472650024
 10      5.1479237562      5.6872217506     -1.3298490150
 10      6.9996708472      3.1385105794     -1.3298375902
 10      7.0542943628     -0.0000039152     -1.3472349287
 10      6.9996709012     -3.1385183080     -1.3298190657
 10      3.4916765734     -5.6872374340     -4.0096924718
 10      0.5180570516     -6.6534250141     -4.0096958881
 10     -2.4616130741     -7.5761038476     -3.9829701407
 10     -4.3298797273     -5.0782349148     -4.0097107552
 10     -6.1676776883     -2.5487230736     -4.0097220939
 10     -7.9659662257     -0.0000118231     -3.9830041010
 10     -6.1676777322      2.5486993006     -4.0097371372
 10     -4.3298798147      5.0782111734     -4.0097407286
 10     -2.4616132046      7.5760802963     -3.9830148574
 10      0.5180569370      6.6534013563     -4.0097351588
 10      3.4916764754      5.6872138275     -4.0097260397
 10      6.4446172001      4.6822707034     -3.9829875449
 10      6.4878662072      1.5633125252     -4.0097075541
 10      6.4878662341     -1.5633360800     -4.0096983268
 10      6.4446172807     -4.6822941013     -3.9829599084
 10      1.3472618625     -4.1464253534     -5.7070266489
 10     -1.6500027025     -5.0782397796     -5.6659580360
 10     -3.5271337103     -2.5626382711     -5.7070415971
 10     -5.3395477545     -0.0000167673     -5.6659807994
 10     -3.5271337544      2.5626045254     -5.7070567226
 10     -1.6500027900      5.0782063086     -5.6659880093
 10      1.3472617911      4.1463916918     -5.7070511224
 10      4.3198064531      3.1384977597     -5.6659697019
 10      4.3598039570     -0.0000168049     -5.7070325359
 10      4.3198065071     -3.1385311277     -5.6659511773
 10     -0.8281110354     -2.5487327665     -7.3097402170
 10     -2.6798581264     -0.0000215954     -7.3097516418
 10     -0.8281110793      2.5486896076     -7.3097552604
 10      2.1680786253      1.5751685875     -7.3097460720
 10      2.1680786525     -1.5752116947     -7.3097367747
 10      0.0000187724     -0.0000262838     -8.9062303798
X00      0.0000000000      0.0000000000      0.0000000000
X01     10.6500000000      0.0000000000      0.0000000000
X02    -10.6500000000      0.0000000000      0.0000000000
X03      0.0000000000      0.0000000000    -10.6500000000
X04      0.0000000000      0.0000000000     10.6500000000
X05      7.5306870908      0.0000000000      7.5306870908
X06     -7.5306870908      0.0000000000     -7.5306870908
X07      7.5306870908      0.0000000000     -7.5306870908
X08     -7.5306870908      0.0000000000      7.5306870908
X09      0.0000000000     10.6500000000      0.0000000000
X10      0.0000000000    -10.6500000000      0.0000000000
X11      7.5306870908      7.5306870908      0.0000000000
X12     -7.5306870908     -7.5306870908      0.0000000000
X13     -7.5306870908      7.5306870908      0.0000000000
X14      7.5306870908     -7.5306870908      0.0000000000
X15      0.0000000000      7.5306870908      7.5306870908
X16      0.0000000000     -7.5306870908     -7.5306870908
X17      0.0000000000      7.5306870908     -7.5306870908
X18      0.0000000000     -7.5306870908      7.5306870908
