             147
Energy (kJ/mol): -2.9031901661E+02 at 2.0 K       
 10      0.1294793133     -0.0128798298     -0.1367444968
 10      0.1538404432      1.2028329882      2.4618660809
 10     -1.2514241894     -1.3758695398      1.8773971525
 10     -2.2376203851      1.1549453178      0.6883011876
 10      0.0334992427      2.7760452958     -0.1095642295
 10      2.5044974092      1.3133127348      0.6888465864
 10      1.6406532709     -1.2991737342      1.8479971681
 10     -2.2136095483     -1.2806307997     -1.0333120781
 10     -1.3983982845      1.2439657317     -2.1961834970
 10      1.5664178402      1.3211189735     -2.2495819841
 10      2.5060459274     -1.1598481045     -0.9995852197
 10      0.2120644986     -2.8101393927     -0.2682241950
 10      0.1291080098     -1.1754219979     -2.7922105536
 10      0.0256961754      2.4487321224      5.0946006826
 10     -1.3501041315     -0.1334706019      4.6429601353
 10     -2.3361729302      2.3857006825      3.3630218728
 10     -0.0114476972      4.1447743501      2.5494984629
 10      2.4610005420      2.6211048834      3.3439505047
 10      1.6547746323     -0.0907071993      4.5979941891
 10      0.2322829874     -2.6484974562      4.0421131166
 10     -2.7592242321     -2.6709449903      3.9499980434
 10     -3.7990498967     -0.2060182413      2.8116817022
 10     -4.7009048548      2.3939660294      1.5662761741
 10     -2.4737302859      4.0214093874      0.7635606277
 10     -0.0607744589      5.6259144697      0.0024014889
 10      2.4325536554      4.2029471057      0.7774396606
 10      4.8937235914      2.6285948250      1.4998507128
 10      4.0192875149      0.0682429664      2.8251380445
 10      3.2314931534     -2.5358268403      3.9685444529
 10     -1.2543146569     -4.2226223134      1.7978931319
 10     -3.7311204773     -2.6886728052      1.0589938576
 10     -4.6861225727     -0.1090211443     -0.1699719600
 10     -3.8368510347      2.4644059236     -1.4382296113
 10     -1.4677498687      4.1318706420     -2.1535761375
 10      1.5432082402      4.2106073626     -2.1895876924
 10      3.9790570631      2.6871239682     -1.4040658802
 10      5.0092038197      0.0537483835     -0.2164285444
 10      4.1459551493     -2.4626963738      1.0235703556
 10      1.7614383170     -4.1204687527      1.8521739328
 10     -2.2082169789     -4.1530655129     -1.1121325310
 10     -4.5628986795     -2.5982891038     -1.8874292679
 10     -3.8272905371     -0.0087894447     -3.2235832726
 10     -2.8476896040      2.5899326161     -4.2961530893
 10      0.0414955037      2.6299727686     -4.3485814859
 10      3.0290522702      2.6988213821     -4.3503247252
 10      4.0328715615      0.1617784510     -3.1568001564
 10      4.9914023217     -2.3761017493     -1.9467166466
 10      2.7026456546     -4.0574314515     -1.1343082114
 10      0.3062695799     -5.6405499988     -0.3420150625
 10     -2.2932812176     -2.5309431227     -3.7123589844
 10     -1.3382780364      0.1009557278     -4.9861083213
 10      1.5979543992      0.1302612266     -4.9529290076
 10      2.5895565660     -2.3615969735     -3.7557982927
 10      0.1990971962     -4.0611473969     -2.9567472002
 10      0.1933424212     -2.4127384938     -5.4739687482
 10      0.0196363087      3.6979869657      7.8638520715
 10     -1.4334220859      1.1530974027      7.3778736657
 10     -2.4397628419      3.7595356279      6.1185137570
 10      0.0281564881      5.4386548304      5.3878635710
 10      2.4820607062      3.8050276403      6.1400948126
 10      1.5815061837      1.1949199788      7.2643250678
 10      0.2410364072     -1.4475660496      6.9128825428
 10     -2.8288571878     -1.5343847791      6.8128853658
 10     -3.8462403109      1.0985769827      5.5973664036
 10     -4.8684655018      3.6301107771      4.2443118872
 10     -2.4760159893      5.3386575603      3.5420447948
 10     -0.1241225840      7.0515309189      2.7103551200
 10      2.5701624173      5.5374177761      3.5943903807
 10      4.9554429471      3.8320656366      4.2422214766
 10      4.1602665831      1.2372727190      5.4905993281
 10      3.2266112617     -1.3764791803      6.8050636209
 10      1.7990654128     -3.9007971566      6.1795913526
 10     -1.1883471713     -4.0485989626      6.1698516284
 10     -4.2118518888     -4.0860755425      6.2106405795
 10     -5.3172892368     -1.5608289362      5.0131140077
 10     -6.3476330876      1.0595380432      3.7613300523
 10     -7.2888802201      3.5008261788      2.4471241254
 10     -4.9591593185      5.3621358689      1.7379043109
 10     -2.6133344285      6.9225446273      0.7706680965
 10     -0.1527178241      8.5856169233      0.1028000042
 10      2.3845719120      7.1044386727      0.8317494524
 10      4.8918385643      5.5479486964      1.6848602367
 10      7.3594268505      3.9981891089      2.3380689283
 10      6.5343314896      1.3514258832      3.7027820732
 10      5.6485947120     -1.2766753745      4.9798484799
 10      4.7533574326     -3.9019737785      6.1718530057
 10      0.2168281806     -5.6689562464      4.1107567548
 10     -2.7271459320     -5.6161349285      3.9671434010
 10     -5.2419533831     -4.1139580291      3.2463391042
 10     -6.2963665690     -1.5661548353      2.0095630919
 10     -7.2328608555      1.0558809111      0.7163458278
 10     -6.3633237557      3.7317845058     -0.5044737512
 10     -3.9863225069      5.4485542104     -1.3926894467
 10     -1.6058561944      7.0647551488     -2.1556245588
 10      1.4141949159      7.0844003269     -2.1620935493
 10      3.9906910083      5.6889584171     -1.2798986521
 10      6.4649771408      4.0914730647     -0.5748329693
 10      7.4375100427      1.4130062084      0.7436657338
 10      6.6306440356     -1.2025894679      2.0683539229
 10      5.7633239608     -3.8707761606      3.1805394460
 10      3.2745216072     -5.3906764691      4.0008341269
 10     -1.1389862013     -7.1128870611      1.8100559136
 10     -3.7450323524     -5.7101536762      1.0534768338
 10     -6.1235406551     -4.0122826656      0.2603907658
 10     -7.0718703414     -1.4634475236     -1.0976217113
 10     -6.3649798726      1.1796798261     -2.3608965819
 10     -5.4402082655      3.9140659498     -3.5132725232
 10     -3.0516395096      5.4598219655     -4.3298388975
 10     -0.0113282071      5.6568406964     -4.4125160503
 10      3.0588769688      5.8076335778     -4.3432106095
 10      5.4091639414      4.1155613588     -3.4914307270
 10      6.5590321090      1.5553754387     -2.3282790740
 10      7.4949690300     -1.0089961333     -1.0812078063
 10      6.7124269447     -3.6579095040      0.2448642994
 10      4.3645137541     -5.4272880270      1.0038189358
 10      1.9214969727     -7.0918875052      1.8452310973
 10     -2.1249092568     -7.0545296248     -1.1387973428
 10     -4.6010665636     -5.5690053128     -1.9758917041
 10     -7.0558683907     -4.0376731109     -2.7389648361
 10     -6.2451598075     -1.3451439888     -4.1148323544
 10     -5.3491668526      1.3349612743     -5.2992451113
 10     -4.4763899200      3.8652075986     -6.5214571899
 10     -1.5215272391      4.0485923288     -6.6265041303
 10      1.5256196181      4.0720699761     -6.4971327777
 10      4.5984337529      4.1147819427     -6.4379504053
 10      5.6415866253      1.5442703122     -5.3625928033
 10      6.5583779653     -0.9551308239     -4.0711371556
 10      7.5498935326     -3.4462362425     -2.8522194301
 10      5.1505130403     -5.2864782757     -2.1074867700
 10      2.8197003584     -7.0310874938     -1.3191131503
 10      0.3954374988     -8.5962629541     -0.3250974991
 10     -2.1834953266     -5.5585482703     -3.9252913705
 10     -4.6948413407     -3.8493400055     -4.6703264277
 10     -3.8143447537     -1.2205577779     -6.0394430750
 10     -2.8714088202      1.4705857367     -7.1363461974
 10      0.1311935077      1.5276058562     -7.1949302798
 10      3.0963316539      1.5419535167     -7.0983468299
 10      4.2188696543     -1.0366547942     -6.0348191634
 10      5.1097625367     -3.5438734116     -4.6405793327
 10      2.6996105631     -5.2947789196     -3.9367126895
 10      0.3409642961     -6.9941541716     -3.0301476827
 10     -2.2853217367     -3.6902443325     -6.5473498539
 10     -1.3577900276     -1.1179912325     -7.7850677922
 10      1.6479728542     -1.0514319930     -7.6698227665
 10      2.6478060991     -3.5920354357     -6.4431201816
 10      0.2365090857     -5.2470633642     -5.7810025615
 10      0.1871114145     -3.5986295687     -8.2913747200
X00      0.0000000000      0.0000000000      0.0000000000
X01     10.6500000000      0.0000000000      0.0000000000
X02    -10.6500000000      0.0000000000      0.0000000000
X03      0.0000000000      0.0000000000    -10.6500000000
X04      0.0000000000      0.0000000000     10.6500000000
X05      7.5306870908      0.0000000000      7.5306870908
X06     -7.5306870908      0.0000000000     -7.5306870908
X07      7.5306870908      0.0000000000     -7.5306870908
X08     -7.5306870908      0.0000000000      7.5306870908
X09      0.0000000000     10.6500000000      0.0000000000
X10      0.0000000000    -10.6500000000      0.0000000000
X11      7.5306870908      7.5306870908      0.0000000000
X12     -7.5306870908     -7.5306870908      0.0000000000
X13     -7.5306870908      7.5306870908      0.0000000000
X14      7.5306870908     -7.5306870908      0.0000000000
X15      0.0000000000      7.5306870908      7.5306870908
X16      0.0000000000     -7.5306870908     -7.5306870908
X17      0.0000000000      7.5306870908     -7.5306870908
X18      0.0000000000     -7.5306870908      7.5306870908
